18
	Energy:     137.6249892
C          0.11587       -1.47960        0.13257
O          0.94264       -0.69704       -0.30488
O          0.92139       -2.48616        0.41252
Si        -1.70253       -1.27580        0.33781
Si         2.32854       -1.72215       -0.10267
H          2.87157       -2.23907       -1.36737
H          3.21556       -1.29959        0.99187
C         -1.84465       -1.27089        0.01727
C         -2.63364       -2.55544       -0.65283
H         -2.05228        0.06439       -0.14292
H         -2.05664       -1.41055        1.75813
H         -2.37383       -2.45666       -1.72664
H         -3.72408       -2.39628       -0.52169
H         -2.36400       -3.57084       -0.29682
C         -4.60718        1.23372       -0.01689
H         -4.44591        0.74935       -1.00217
H         -3.76824        1.93026        0.18950
H         -4.63659        0.45410        0.77208
