14
	Energy:     479.7666647
O          1.00954        1.71931        0.04143
O          1.26949       -1.53328       -0.18295
O          1.02955        0.19656       -1.69910
O          1.24948       -0.01053        1.55759
O         -1.05067       -0.20423        1.70061
O         -1.27060        0.00286       -1.55609
O         -1.03065       -1.72698       -0.03993
O         -1.29061        1.52561        0.18445
Fe         0.00796       -1.41299       -1.60994
Fe         0.21148       -1.60463        1.40380
Fe         2.11799        0.17541       -0.13160
Fe        -0.02908        1.40532        1.61144
Fe        -0.23260        1.59695       -1.40230
Fe        -2.13911       -0.18308        0.13310
