25
	Energy:     890.2486622
O          1.45220        1.42050        0.40374
O          1.35905       -2.05810        0.13772
O          1.50686       -0.10571       -1.42887
O          0.99379       -0.38565        1.86716
O         -1.34439       -0.39959        1.82421
O         -0.71700       -0.11743       -1.53256
O         -1.07951       -2.00402       -0.37588
O         -1.27256        1.45885       -0.18647
Cu         0.38985       -1.57154       -1.40661
Cu        -0.12302       -1.81881        1.31475
Cu         2.09263       -0.33201        0.34535
Cu        -0.16266        1.08948        1.44689
Cu         0.36183        1.43001       -1.10406
Cu        -1.73166       -0.33740        0.07855
C          2.03162        2.27957       -2.01578
H          2.04351        1.99458       -3.08919
H          2.97310        1.88836       -1.56557
H          2.04602        3.38152       -1.92285
C         -3.18993       -2.58875        1.66990
H         -2.33808       -3.22315        1.34883
H         -2.97697       -2.19848        2.68651
H         -4.08743       -3.24075        1.72619
C         -3.43576       -1.44120        0.67700
H         -4.25913       -0.79983        1.05401
H         -3.76973       -1.89753       -0.27830
