13
	Energy:      47.0326795
O          0.33115        0.81713       -0.76976
Si         0.03322        0.46228       -2.29447
C          1.43493        1.07064       -3.36663
H          2.37341        0.55981       -3.06811
H          1.55274        2.16655       -3.24342
H          1.21104        0.83802       -4.42804
C         -1.54922        1.29771       -2.83287
H         -1.72332        1.09789       -3.91003
H         -1.46820        2.39166       -2.66753
H         -2.39747        0.89590       -2.24142
H         -0.24118        1.25783       -0.30140
H         -0.13494       -0.98933       -2.45161
H          1.07062        0.57248       -0.40055
